version 2
run TwoNodes-0-20160322-23:42:31-10882
attr configname TwoNodes
attr datetime 20160322-23:42:31
attr experiment TwoNodes
attr inifile omnetpp.ini
attr iterationvars $0=0
attr iterationvars2 "$0=0, $repetition=0"
attr measurement $0=0
attr network P2P_Wireless_Wifi
attr processid 10882
attr repetition 0
attr replication #0
attr resultdir results
attr runnumber 0
attr seedset 0

vector 6  P2P_Wireless_Wifi.node[0].batteryStats  capacity  ETV
attr unit  mW-s
vector 17  P2P_Wireless_Wifi.node[1].batteryStats  capacity  ETV
attr unit  mW-s
6	0	0	1079999997840
6	9	1	1079999996745
6	20	2	1079999995650
6	31	3	1079999994555
6	42	4	1079999993460
6	53	5	1079999992365
6	64	6	1079999991270
6	75	7	1079999990175
6	86	8	1079999989080
6	100	9	1079999987985
6	111	10	1079999986890
6	122	11	1079999985795
6	133	12	1079999984700
6	144	13	1079999983605
6	155	14	1079999982510
6	166	15	1079999981415
6	177	16	1079999980320
6	188	17	1079999979225
6	199	18	1079999978130
6	210	19	1079999977035
6	224	20	1079999975940
6	235	21	1079999974845
6	249	22	1079999973750
6	260	23	1079999972655
6	271	24	1079999971560
6	282	25	1079999970465
6	293	26	1079999969370
6	304	27	1079999968275
6	315	28	1079999967180
6	326	29	1079999966085
6	337	30	1079999964990
6	348	31	1079999963895
6	359	32	1079999962800
6	370	33	1079999961705
6	381	34	1079999960610
6	392	35	1079999959515
6	406	36	1079999958420
6	417	37	1079999957325
6	428	38	1079999956230
6	439	39	1079999955135
6	450	40	1079999954040
6	461	41	1079999952945
6	472	42	1079999951850
6	483	43	1079999950755
6	497	44	1079999949660
6	508	45	1079999948565
6	519	46	1079999947470
6	530	47	1079999946375
6	541	48	1079999945280
6	552	49	1079999944185
6	563	50	1079999943090
6	577	51	1079999941995
6	588	52	1079999940900
6	599	53	1079999939805
6	610	54	1079999938710
6	621	55	1079999937615
6	635	56	1079999936520
6	646	57	1079999935425
6	657	58	1079999934330
6	668	59	1079999933235
6	679	60	1079999932140
6	690	61	1079999931045
6	701	62	1079999929950
6	712	63	1079999928855
6	723	64	1079999927760
6	737	65	1079999926665
6	748	66	1079999925570
6	759	67	1079999924475
6	770	68	1079999923380
6	781	69	1079999922285
6	792	70	1079999921190
6	803	71	1079999920095
6	814	72	1079999919000
6	825	73	1079999917905
6	836	74	1079999916810
6	847	75	1079999915715
6	858	76	1079999914620
6	869	77	1079999913525
6	880	78	1079999912430
6	891	79	1079999911335
6	905	80	1079999910240
6	916	81	1079999909145
6	927	82	1079999908050
6	938	83	1079999906955
6	949	84	1079999905860
6	960	85	1079999904765
6	971	86	1079999903670
6	982	87	1079999902575
6	993	88	1079999901480
6	1007	89	1079999900385
6	1018	90	1079999899290
6	1029	91	1079999898195
6	1040	92	1079999897100
6	1051	93	1079999896005
6	1062	94	1079999894910
6	1073	95	1079999893815
6	1087	96	1079999892720
6	1098	97	1079999891625
6	1109	98	1079999890530
6	1120	99	1079999889435
17	0	0	1079999997840
17	10	1	1079999996745
17	21	2	1079999995650
17	32	3	1079999994555
17	43	4	1079999993460
17	54	5	1079999992365
17	65	6	1079999991270
17	76	7	1079999990175
17	87	8	1079999989080
17	101	9	1079999987985
17	112	10	1079999986890
17	123	11	1079999985795
17	134	12	1079999984700
17	145	13	1079999983605
17	156	14	1079999982510
17	167	15	1079999981415
17	178	16	1079999980320
17	189	17	1079999979225
17	200	18	1079999978130
17	211	19	1079999977035
17	225	20	1079999975940
17	236	21	1079999974845
17	250	22	1079999973750
17	261	23	1079999972655
17	272	24	1079999971560
17	283	25	1079999970465
17	294	26	1079999969370
17	305	27	1079999968275
17	316	28	1079999967180
17	327	29	1079999966085
17	338	30	1079999964990
17	349	31	1079999963895
17	360	32	1079999962800
17	371	33	1079999961705
17	382	34	1079999960610
17	393	35	1079999959515
17	407	36	1079999958420
17	418	37	1079999957325
17	429	38	1079999956230
17	440	39	1079999955135
17	451	40	1079999954040
17	462	41	1079999952945
17	473	42	1079999951850
17	484	43	1079999950755
17	498	44	1079999949660
17	509	45	1079999948565
17	520	46	1079999947470
17	531	47	1079999946375
17	542	48	1079999945280
17	553	49	1079999944185
17	564	50	1079999943090
17	578	51	1079999941995
17	589	52	1079999940900
17	600	53	1079999939805
17	611	54	1079999938710
17	622	55	1079999937615
17	636	56	1079999936520
17	647	57	1079999935425
17	658	58	1079999934330
17	669	59	1079999933235
17	680	60	1079999932140
17	691	61	1079999931045
17	702	62	1079999929950
17	713	63	1079999928855
17	724	64	1079999927760
17	738	65	1079999926665
17	749	66	1079999925570
17	760	67	1079999924475
17	771	68	1079999923380
17	782	69	1079999922285
17	793	70	1079999921190
17	804	71	1079999920095
17	815	72	1079999919000
17	826	73	1079999917905
17	837	74	1079999916810
17	848	75	1079999915715
17	859	76	1079999914620
17	870	77	1079999913525
17	881	78	1079999912430
17	892	79	1079999911335
17	906	80	1079999910240
17	917	81	1079999909145
17	928	82	1079999908050
17	939	83	1079999906955
17	950	84	1079999905860
17	961	85	1079999904765
17	972	86	1079999903670
17	983	87	1079999902575
17	994	88	1079999901480
17	1008	89	1079999900385
17	1019	90	1079999899290
17	1030	91	1079999898195
17	1041	92	1079999897100
17	1052	93	1079999896005
17	1063	94	1079999894910
17	1074	95	1079999893815
17	1088	96	1079999892720
17	1099	97	1079999891625
17	1110	98	1079999890530
17	1121	99	1079999889435
